<?xml version="1.0" encoding="UTF-8"?>

<!-- generated on 2022-07-01 09:08:35 by Eclipse SUMO GUI Version 1.12.0
<configuration xmlns:xsi="http://www.w3.org/2001/XMLSchema-instance" xsi:noNamespaceSchemaLocation="http://sumo.dlr.de/xsd/sumoConfiguration.xsd">

    <input>
        <net-file value="D:\update\Mont\data\moco.net.xml"/>
        <route-files value="D:\update\Mont\data\moco_jtr_out.rou.xml"/>
        <additional-files value="D:\update\Mont\data\moco.det.xml"/>
    </input>

    <output>
        <queue-output value="D:\update\Mont\data\queues.xml"/>
    </output>

    <time>
        <begin value="0"/>
        <end value="7300"/>
    </time>

    <processing>
        <time-to-teleport value="300"/>
    </processing>

</configuration>
-->

<queue-export xmlns:xsi="http://www.w3.org/2001/XMLSchema-instance" xsi:noNamespaceSchemaLocation="http://sumo.dlr.de/xsd/queue_file.xsd">
    <data timestep="0.00">
        <lanes/>
    </data>
    <data timestep="1.00">
        <lanes/>
    </data>
    <data timestep="2.00">
        <lanes/>
    </data>
    <data timestep="3.00">
        <lanes/>
    </data>
    <data timestep="4.00">
        <lanes/>
    </data>
    <data timestep="5.00">
        <lanes/>
    </data>
    <data timestep="6.00">
        <lanes/>
    </data>
    <data timestep="7.00">
        <lanes/>
    </data>
    <data timestep="8.00">
        <lanes/>
    </data>
    <data timestep="9.00">
        <lanes>
            <lane id="143009954_0" queueing_time="0.00" queueing_length="0.00" queueing_length_experimental="7.19"/>
            <lane id="5965712_1" queueing_time="0.00" queueing_length="0.00" queueing_length_experimental="7.62"/>
        </lanes>
    </data>
    <data timestep="10.00">
        <lanes>
            <lane id="143009954_0" queueing_time="0.00" queueing_length="0.00" queueing_length_experimental="6.52"/>
            <lane id="5965712_1" queueing_time="0.00" queueing_length="0.00" queueing_length_experimental="7.01"/>
        </lanes>
    </data>
    <data timestep="11.00">
        <lanes>
            <lane id="143009954_0" queueing_time="0.00" queueing_length="0.00" queueing_length_experimental="6.20"/>
            <lane id="5965712_1" queueing_time="0.00" queueing_length="0.00" queueing_length_experimental="6.62"/>
        </lanes>
    </data>
    <data timestep="12.00">
        <lanes>
            <lane id="143009954_0" queueing_time="0.00" queueing_length="0.00" queueing_length_experimental="6.07"/>
            <lane id="5965712_1" queueing_time="0.00" queueing_length="0.00" queueing_length_experimental="6.38"/>
        </lanes>
    </data>
    <data timestep="13.00">
        <lanes>
            <lane id="143009954_0" queueing_time="1.00" queueing_length="6.02" queueing_length_experimental="6.02"/>
            <lane id="5965712_1" queueing_time="0.00" queueing_length="0.00" queueing_length_experimental="6.23"/>
            <lane id="gneE17.147_2" queueing_time="0.00" queueing_length="0.00" queueing_length_experimental="7.08"/>
        </lanes>
    </data>
    <data timestep="14.00">
        <lanes>
            <lane id="143009954_0" queueing_time="2.00" queueing_length="6.00" queueing_length_experimental="6.00"/>
            <lane id="5965712_1" queueing_time="1.00" queueing_length="6.14" queueing_length_experimental="6.14"/>
            <lane id="gneE17.147_2" queueing_time="0.00" queueing_length="0.00" queueing_length_experimental="6.46"/>
        </lanes>
    </data>
    <data timestep="15.00">
        <lanes>
            <lane id="143009954_0" queueing_time="3.00" queueing_length="6.00" queueing_length_experimental="6.00"/>
            <lane id="5965712_1" queueing_time="2.00" queueing_length="6.09" queueing_length_experimental="6.09"/>
            <lane id="gneE17.147_2" queueing_time="0.00" queueing_length="0.00" queueing_length_experimental="6.18"/>
        </lanes>
    </data>
    <data timestep="16.00">
        <lanes>
            <lane id="143009954_0" queueing_time="4.00" queueing_length="6.00" queueing_length_experimental="6.00"/>
            <lane id="5965712_1" queueing_time="3.00" queueing_length="6.05" queueing_length_experimental="6.05"/>
            <lane id="gneE17.147_2" queueing_time="0.00" queueing_length="0.00" queueing_length_experimental="6.06"/>
        </lanes>
    </data>
    <data timestep="17.00">
        <lanes>
            <lane id="143009954_0" queueing_time="5.00" queueing_length="6.00" queueing_length_experimental="6.00"/>
            <lane id="5965712_1" queueing_time="4.00" queueing_length="6.03" queueing_length_experimental="6.03"/>
            <lane id="5974128_0" queueing_time="0.00" queueing_length="0.00" queueing_length_experimental="6.92"/>
            <lane id="gneE17.147_2" queueing_time="1.00" queueing_length="6.01" queueing_length_experimental="6.01"/>
        </lanes>
    </data>
    <data timestep="18.00">
        <lanes>
            <lane id="143009954_0" queueing_time="6.00" queueing_length="6.00" queueing_length_experimental="6.00"/>
            <lane id="143009954_1" queueing_time="0.00" queueing_length="0.00" queueing_length_experimental="8.43"/>
            <lane id="5965712_1" queueing_time="5.00" queueing_length="6.02" queueing_length_experimental="6.02"/>
            <lane id="5974128_0" queueing_time="0.00" queueing_length="0.00" queueing_length_experimental="6.39"/>
            <lane id="gneE17.147_2" queueing_time="2.00" queueing_length="6.00" queueing_length_experimental="6.00"/>
        </lanes>
    </data>
    <data timestep="19.00">
        <lanes>
            <lane id="143009954_0" queueing_time="7.00" queueing_length="6.00" queueing_length_experimental="6.00"/>
            <lane id="143009954_1" queueing_time="0.00" queueing_length="0.00" queueing_length_experimental="7.53"/>
            <lane id="5965712_1" queueing_time="6.00" queueing_length="6.01" queueing_length_experimental="6.01"/>
            <lane id="5974128_0" queueing_time="0.00" queueing_length="0.00" queueing_length_experimental="6.14"/>
            <lane id="gneE17.147_2" queueing_time="3.00" queueing_length="6.00" queueing_length_experimental="6.00"/>
        </lanes>
    </data>
    <data timestep="20.00">
        <lanes>
            <lane id="143009954_0" queueing_time="8.00" queueing_length="6.00" queueing_length_experimental="6.00"/>
            <lane id="143009954_1" queueing_time="0.00" queueing_length="0.00" queueing_length_experimental="6.95"/>
            <lane id="5965712_1" queueing_time="7.00" queueing_length="6.01" queueing_length_experimental="6.01"/>
            <lane id="5974128_0" queueing_time="1.00" queueing_length="6.04" queueing_length_experimental="6.04"/>
            <lane id="gneE17.147_2" queueing_time="4.00" queueing_length="6.00" queueing_length_experimental="6.00"/>
        </lanes>
    </data>
    <data timestep="21.00">
        <lanes>
            <lane id="143009954_0" queueing_time="9.00" queueing_length="6.00" queueing_length_experimental="6.00"/>
            <lane id="143009954_1" queueing_time="0.00" queueing_length="0.00" queueing_length_experimental="6.59"/>
            <lane id="5965712_1" queueing_time="8.00" queueing_length="6.01" queueing_length_experimental="6.01"/>
            <lane id="5974128_0" queueing_time="2.00" queueing_length="6.01" queueing_length_experimental="6.01"/>
            <lane id="gneE17.147_2" queueing_time="5.00" queueing_length="6.00" queueing_length_experimental="6.00"/>
        </lanes>
    </data>
    <data timestep="22.00">
        <lanes>
            <lane id="143009954_0" queueing_time="10.00" queueing_length="6.00" queueing_length_experimental="6.00"/>
            <lane id="143009954_1" queueing_time="0.00" queueing_length="0.00" queueing_length_experimental="6.36"/>
            <lane id="5965712_1" queueing_time="9.00" queueing_length="6.01" queueing_length_experimental="6.01"/>
            <lane id="5974128_0" queueing_time="3.00" queueing_length="6.00" queueing_length_experimental="6.00"/>
            <lane id="gneE17.147_2" queueing_time="6.00" queueing_length="6.00" queueing_length_experimental="6.00"/>
        </lanes>
    </data>
    <data timestep="23.00">
        <lanes>
            <lane id="143009954_0" queueing_time="11.00" queueing_length="6.00" queueing_length_experimental="6.00"/>
            <lane id="143009954_1" queueing_time="0.00" queueing_length="0.00" queueing_length_experimental="6.22"/>
            <lane id="5965712_1" queueing_time="10.00" queueing_length="6.01" queueing_length_experimental="6.01"/>
            <lane id="5974128_0" queueing_time="4.00" queueing_length="6.00" queueing_length_experimental="6.00"/>
            <lane id="gneE17.147_2" queueing_time="7.00" queueing_length="6.00" queueing_length_experimental="6.00"/>
            <lane id="gneE17.147_3" queueing_time="0.00" queueing_length="0.00" queueing_length_experimental="7.97"/>
        </lanes>
    </data>
    <data timestep="24.00">
        <lanes>
            <lane id="143009954_0" queueing_time="12.00" queueing_length="6.00" queueing_length_experimental="6.00"/>
            <lane id="143009954_1" queueing_time="1.00" queueing_length="6.13" queueing_length_experimental="6.13"/>
            <lane id="5965712_1" queueing_time="11.00" queueing_length="6.01" queueing_length_experimental="6.01"/>
            <lane id="5974128_0" queueing_time="5.00" queueing_length="6.00" queueing_length_experimental="6.00"/>
            <lane id="gneE17.147_2" queueing_time="8.00" queueing_length="6.00" queueing_length_experimental="6.00"/>
            <lane id="gneE17.147_3" queueing_time="0.00" queueing_length="0.00" queueing_length_experimental="7.24"/>
        </lanes>
    </data>
    <data timestep="25.00">
        <lanes>
            <lane id="143009954_0" queueing_time="13.00" queueing_length="6.00" queueing_length_experimental="6.00"/>
            <lane id="143009954_1" queueing_time="2.00" queueing_length="6.08" queueing_length_experimental="6.08"/>
            <lane id="5965712_1" queueing_time="12.00" queueing_length="6.01" queueing_length_experimental="6.01"/>
            <lane id="5974128_0" queueing_time="6.00" queueing_length="6.00" queueing_length_experimental="6.00"/>
            <lane id="gneE17.147_2" queueing_time="9.00" queueing_length="6.00" queueing_length_experimental="6.00"/>
            <lane id="gneE17.147_3" queueing_time="0.00" queueing_length="0.00" queueing_length_experimental="6.76"/>
        </lanes>
    </data>
    <data timestep="26.00">
        <lanes>
            <lane id="143009954_0" queueing_time="14.00" queueing_length="6.00" queueing_length_experimental="16.78"/>
            <lane id="143009954_1" queueing_time="3.00" queueing_length="6.05" queueing_length_experimental="6.05"/>
            <lane id="5965712_1" queueing_time="13.00" queueing_length="6.01" queueing_length_experimental="6.01"/>
            <lane id="5974128_0" queueing_time="7.00" queueing_length="6.00" queueing_length_experimental="6.00"/>
            <lane id="gneE17.147_2" queueing_time="10.00" queueing_length="6.00" queueing_length_experimental="6.00"/>
            <lane id="gneE17.147_3" queueing_time="0.00" queueing_length="0.00" queueing_length_experimental="6.47"/>
        </lanes>
    </data>
    <data timestep="27.00">
        <lanes>
            <lane id="143009954_0" queueing_time="15.00" queueing_length="6.00" queueing_length_experimental="16.11"/>
            <lane id="143009954_1" queueing_time="4.00" queueing_length="6.03" queueing_length_experimental="6.03"/>
            <lane id="5965712_1" queueing_time="14.00" queueing_length="6.01" queueing_length_experimental="6.01"/>
            <lane id="5974128_0" queueing_time="8.00" queueing_length="6.00" queueing_length_experimental="6.00"/>
            <lane id="gneE17.147_2" queueing_time="11.00" queueing_length="6.00" queueing_length_experimental="6.00"/>
            <lane id="gneE17.147_3" queueing_time="0.00" queueing_length="0.00" queueing_length_experimental="6.29"/>
        </lanes>
    </data>
    <data timestep="28.00">
        <lanes>
            <lane id="143009954_0" queueing_time="16.00" queueing_length="6.00" queueing_length_experimental="15.69"/>
            <lane id="143009954_1" queueing_time="5.00" queueing_length="6.02" queueing_length_experimental="6.02"/>
            <lane id="5965712_1" queueing_time="15.00" queueing_length="6.01" queueing_length_experimental="6.01"/>
            <lane id="5974128_0" queueing_time="9.00" queueing_length="6.00" queueing_length_experimental="6.00"/>
            <lane id="gneE17.147_2" queueing_time="12.00" queueing_length="6.00" queueing_length_experimental="6.00"/>
            <lane id="gneE17.147_3" queueing_time="0.00" queueing_length="0.00" queueing_length_experimental="6.17"/>
        </lanes>
    </data>
    <data timestep="29.00">
        <lanes>
            <lane id="143009954_0" queueing_time="17.00" queueing_length="6.00" queueing_length_experimental="15.42"/>
            <lane id="143009954_1" queueing_time="6.00" queueing_length="6.01" queueing_length_experimental="6.01"/>
            <lane id="5965712_1" queueing_time="16.00" queueing_length="6.01" queueing_length_experimental="6.01"/>
            <lane id="gneE17.147_2" queueing_time="13.00" queueing_length="6.00" queueing_length_experimental="6.00"/>
            <lane id="gneE17.147_3" queueing_time="1.00" queueing_length="6.11" queueing_length_experimental="6.11"/>
        </lanes>
    </data>
    <data timestep="30.00">
        <lanes>
            <lane id="143009954_0" queueing_time="18.00" queueing_length="6.00" queueing_length_experimental="15.26"/>
            <lane id="143009954_1" queueing_time="7.00" queueing_length="6.01" queueing_length_experimental="6.01"/>
            <lane id="5965712_1" queueing_time="17.00" queueing_length="6.01" queueing_length_experimental="6.01"/>
            <lane id="gneE17.147_2" queueing_time="14.00" queueing_length="6.00" queueing_length_experimental="6.00"/>
            <lane id="gneE17.147_3" queueing_time="2.00" queueing_length="6.06" queueing_length_experimental="17.31"/>
        </lanes>
    </data>
    <data timestep="31.00">
        <lanes>
            <lane id="143009954_0" queueing_time="19.00" queueing_length="6.00" queueing_length_experimental="15.16"/>
            <lane id="143009954_1" queueing_time="8.00" queueing_length="6.01" queueing_length_experimental="6.01"/>
            <lane id="5965712_1" queueing_time="18.00" queueing_length="6.01" queueing_length_experimental="6.01"/>
            <lane id="gneE17.147_2" queueing_time="15.00" queueing_length="6.00" queueing_length_experimental="6.00"/>
            <lane id="gneE17.147_3" queueing_time="3.00" queueing_length="6.04" queueing_length_experimental="16.46"/>
        </lanes>
    </data>
    <data timestep="32.00">
        <lanes>
            <lane id="143009954_0" queueing_time="20.00" queueing_length="15.10" queueing_length_experimental="15.10"/>
            <lane id="143009954_1" queueing_time="9.00" queueing_length="6.01" queueing_length_experimental="6.01"/>
            <lane id="5965712_1" queueing_time="19.00" queueing_length="6.01" queueing_length_experimental="6.01"/>
            <lane id="gneE17.147_2" queueing_time="16.00" queueing_length="6.00" queueing_length_experimental="6.00"/>
            <lane id="gneE17.147_3" queueing_time="4.00" queueing_length="6.02" queueing_length_experimental="15.91"/>
        </lanes>
    </data>
    <data timestep="33.00">
        <lanes>
            <lane id="143009954_0" queueing_time="21.00" queueing_length="15.06" queueing_length_experimental="26.33"/>
            <lane id="143009954_1" queueing_time="10.00" queueing_length="6.01" queueing_length_experimental="6.01"/>
            <lane id="5965712_1" queueing_time="20.00" queueing_length="6.01" queueing_length_experimental="6.01"/>
            <lane id="gneE17.147_2" queueing_time="17.00" queueing_length="6.00" queueing_length_experimental="6.00"/>
            <lane id="gneE17.147_3" queueing_time="5.00" queueing_length="6.01" queueing_length_experimental="15.57"/>
        </lanes>
    </data>
    <data timestep="34.00">
        <lanes>
            <lane id="143009954_0" queueing_time="22.00" queueing_length="15.04" queueing_length_experimental="25.48"/>
            <lane id="143009954_1" queueing_time="11.00" queueing_length="6.01" queueing_length_experimental="6.01"/>
            <lane id="5965712_1" queueing_time="21.00" queueing_length="6.01" queueing_length_experimental="6.01"/>
            <lane id="gneE17.147_2" queueing_time="18.00" queueing_length="6.00" queueing_length_experimental="6.00"/>
            <lane id="gneE17.147_3" queueing_time="6.00" queueing_length="6.01" queueing_length_experimental="15.35"/>
        </lanes>
    </data>
    <data timestep="35.00">
        <lanes>
            <lane id="143009954_0" queueing_time="23.00" queueing_length="15.02" queueing_length_experimental="24.93"/>
            <lane id="143009954_1" queueing_time="12.00" queueing_length="6.01" queueing_length_experimental="6.01"/>
            <lane id="5965712_1" queueing_time="22.00" queueing_length="6.01" queueing_length_experimental="6.01"/>
            <lane id="gneE17.147_2" queueing_time="19.00" queueing_length="6.00" queueing_length_experimental="6.00"/>
            <lane id="gneE17.147_3" queueing_time="7.00" queueing_length="6.01" queueing_length_experimental="15.22"/>
        </lanes>
    </data>
    <data timestep="36.00">
        <lanes>
            <lane id="143009954_0" queueing_time="24.00" queueing_length="15.02" queueing_length_experimental="24.58"/>
            <lane id="143009954_1" queueing_time="13.00" queueing_length="6.01" queueing_length_experimental="6.01"/>
            <lane id="5965712_1" queueing_time="23.00" queueing_length="6.01" queueing_length_experimental="6.01"/>
            <lane id="gneE17.147_2" queueing_time="20.00" queueing_length="6.00" queueing_length_experimental="6.00"/>
            <lane id="gneE17.147_3" queueing_time="8.00" queueing_length="15.13" queueing_length_experimental="15.13"/>
        </lanes>
    </data>
    <data timestep="37.00">
        <lanes>
            <lane id="143009954_0" queueing_time="25.00" queueing_length="15.01" queueing_length_experimental="24.36"/>
            <lane id="143009954_1" queueing_time="14.00" queueing_length="6.01" queueing_length_experimental="6.01"/>
            <lane id="5965712_1" queueing_time="24.00" queueing_length="6.01" queueing_length_experimental="6.01"/>
            <lane id="gneE17.147_2" queueing_time="21.00" queueing_length="6.00" queueing_length_experimental="17.47"/>
            <lane id="gneE17.147_3" queueing_time="9.00" queueing_length="15.08" queueing_length_experimental="15.08"/>
        </lanes>
    </data>
    <data timestep="38.00">
        <lanes>
            <lane id="143009954_0" queueing_time="26.00" queueing_length="15.01" queueing_length_experimental="24.22"/>
            <lane id="143009954_1" queueing_time="15.00" queueing_length="6.01" queueing_length_experimental="6.01"/>
            <lane id="5965712_1" queueing_time="25.00" queueing_length="6.01" queueing_length_experimental="6.01"/>
            <lane id="gneE17.147_2" queueing_time="22.00" queueing_length="6.00" queueing_length_experimental="16.56"/>
            <lane id="gneE17.147_3" queueing_time="10.00" queueing_length="15.05" queueing_length_experimental="15.05"/>
        </lanes>
    </data>
    <data timestep="39.00">
        <lanes>
            <lane id="143009954_0" queueing_time="27.00" queueing_length="24.14" queueing_length_experimental="24.14"/>
            <lane id="143009954_1" queueing_time="16.00" queueing_length="6.01" queueing_length_experimental="6.01"/>
            <lane id="243728741#0_2" queueing_time="0.00" queueing_length="0.00" queueing_length_experimental="7.30"/>
            <lane id="5965712_1" queueing_time="26.00" queueing_length="6.01" queueing_length_experimental="6.01"/>
            <lane id="gneE17.147_2" queueing_time="23.00" queueing_length="6.00" queueing_length_experimental="15.97"/>
            <lane id="gneE17.147_3" queueing_time="11.00" queueing_length="15.04" queueing_length_experimental="15.04"/>
        </lanes>
    </data>
    <data timestep="40.00">
        <lanes>
            <lane id="143009954_0" queueing_time="28.00" queueing_length="24.08" queueing_length_experimental="24.08"/>
            <lane id="143009954_1" queueing_time="17.00" queueing_length="6.01" queueing_length_experimental="6.01"/>
            <lane id="243728741#0_2" queueing_time="0.00" queueing_length="0.00" queueing_length_experimental="6.57"/>
            <lane id="50846710#1.45_0" queueing_time="0.00" queueing_length="0.00" queueing_length_experimental="8.32"/>
            <lane id="5965712_1" queueing_time="27.00" queueing_length="6.01" queueing_length_experimental="6.01"/>
            <lane id="5968215#0.389_0" queueing_time="0.00" queueing_length="0.00" queueing_length_experimental="6.18"/>
            <lane id="gneE17.147_2" queueing_time="24.00" queueing_length="6.00" queueing_length_experimental="15.60"/>
            <lane id="gneE17.147_3" queueing_time="12.00" queueing_length="15.03" queueing_length_experimental="15.03"/>
        </lanes>
    </data>
    <data timestep="41.00">
        <lanes>
            <lane id="143009954_0" queueing_time="29.00" queueing_length="24.05" queueing_length_experimental="24.05"/>
            <lane id="143009954_1" queueing_time="18.00" queueing_length="6.01" queueing_length_experimental="14.80"/>
            <lane id="243728741#0_2" queueing_time="0.00" queueing_length="0.00" queueing_length_experimental="6.22"/>
            <lane id="50846710#1.45_0" queueing_time="0.00" queueing_length="0.00" queueing_length_experimental="7.46"/>
            <lane id="5965712_1" queueing_time="28.00" queueing_length="6.01" queueing_length_experimental="6.01"/>
            <lane id="5968215#0.389_0" queueing_time="0.00" queueing_length="0.00" queueing_length_experimental="5.57"/>
            <lane id="gneE17.147_2" queueing_time="25.00" queueing_length="6.00" queueing_length_experimental="15.37"/>
            <lane id="gneE17.147_3" queueing_time="13.00" queueing_length="15.02" queueing_length_experimental="15.02"/>
        </lanes>
    </data>
    <data timestep="42.00">
        <lanes>
            <lane id="143009954_0" queueing_time="30.00" queueing_length="24.03" queueing_length_experimental="24.03"/>
            <lane id="143009954_1" queueing_time="19.00" queueing_length="6.01" queueing_length_experimental="14.33"/>
            <lane id="243728741#0_2" queueing_time="0.00" queueing_length="0.00" queueing_length_experimental="6.07"/>
            <lane id="50846710#1.45_0" queueing_time="0.00" queueing_length="0.00" queueing_length_experimental="6.91"/>
            <lane id="5965712_1" queueing_time="29.00" queueing_length="6.01" queueing_length_experimental="6.01"/>
            <lane id="5968215#0.389_0" queueing_time="0.00" queueing_length="0.00" queueing_length_experimental="5.28"/>
            <lane id="gneE17.147_2" queueing_time="26.00" queueing_length="6.00" queueing_length_experimental="15.22"/>
            <lane id="gneE17.147_3" queueing_time="14.00" queueing_length="15.01" queueing_length_experimental="15.01"/>
        </lanes>
    </data>
    <data timestep="43.00">
        <lanes>
            <lane id="143009954_0" queueing_time="31.00" queueing_length="24.02" queueing_length_experimental="24.02"/>
            <lane id="143009954_1" queueing_time="20.00" queueing_length="6.01" queueing_length_experimental="14.12"/>
            <lane id="243728741#0_2" queueing_time="1.00" queueing_length="6.02" queueing_length_experimental="6.02"/>
            <lane id="50846710#1.45_0" queueing_time="0.00" queueing_length="0.00" queueing_length_experimental="6.56"/>
            <lane id="5965712_1" queueing_time="30.00" queueing_length="6.01" queueing_length_experimental="6.01"/>
            <lane id="5968215#0.389_0" queueing_time="0.00" queueing_length="0.00" queueing_length_experimental="5.16"/>
            <lane id="gneE17.147_2" queueing_time="27.00" queueing_length="15.14" queueing_length_experimental="15.14"/>
            <lane id="gneE17.147_3" queueing_time="15.00" queueing_length="15.01" queueing_length_experimental="15.01"/>
        </lanes>
    </data>
    <data timestep="44.00">
        <lanes>
            <lane id="143009954_0" queueing_time="32.00" queueing_length="24.01" queueing_length_experimental="24.01"/>
            <lane id="143009954_1" queueing_time="21.00" queueing_length="14.04" queueing_length_experimental="14.04"/>
            <lane id="243728741#0_2" queueing_time="2.00" queueing_length="6.00" queueing_length_experimental="6.00"/>
            <lane id="50846710#1.45_0" queueing_time="0.00" queueing_length="0.00" queueing_length_experimental="6.34"/>
            <lane id="50846782#2.53_0" queueing_time="0.00" queueing_length="0.00" queueing_length_experimental="6.76"/>
            <lane id="5965712_1" queueing_time="31.00" queueing_length="6.01" queueing_length_experimental="6.01"/>
            <lane id="5968215#0.389_0" queueing_time="1.00" queueing_length="5.11" queueing_length_experimental="5.11"/>
            <lane id="gneE17.147_2" queueing_time="28.00" queueing_length="15.08" queueing_length_experimental="26.44"/>
            <lane id="gneE17.147_3" queueing_time="16.00" queueing_length="15.01" queueing_length_experimental="15.01"/>
        </lanes>
    </data>
    <data timestep="45.00">
        <lanes>
            <lane id="143009954_0" queueing_time="33.00" queueing_length="24.01" queueing_length_experimental="24.01"/>
            <lane id="143009954_1" queueing_time="22.00" queueing_length="14.01" queueing_length_experimental="14.01"/>
            <lane id="243728741#0_2" queueing_time="3.00" queueing_length="6.00" queueing_length_experimental="6.00"/>
            <lane id="50846710#1.45_0" queueing_time="0.00" queueing_length="0.00" queueing_length_experimental="6.21"/>
            <lane id="50846782#2.53_0" queueing_time="0.00" queueing_length="0.00" queueing_length_experimental="6.13"/>
            <lane id="5965712_1" queueing_time="32.00" queueing_length="6.01" queueing_length_experimental="6.01"/>
            <lane id="5968215#0.389_0" queueing_time="2.00" queueing_length="5.10" queueing_length_experimental="5.10"/>
            <lane id="gneE17.147_2" queueing_time="29.00" queueing_length="15.05" queueing_length_experimental="25.55"/>
            <lane id="gneE17.147_3" queueing_time="17.00" queueing_length="15.01" queueing_length_experimental="15.01"/>
        </lanes>
    </data>
    <data timestep="46.00">
        <lanes>
            <lane id="143009954_0" queueing_time="34.00" queueing_length="37.43" queueing_length_experimental="37.43"/>
            <lane id="143009954_1" queueing_time="23.00" queueing_length="14.01" queueing_length_experimental="14.01"/>
            <lane id="243728741#0_2" queueing_time="4.00" queueing_length="6.00" queueing_length_experimental="6.00"/>
            <lane id="50846710#1.45_0" queueing_time="1.00" queueing_length="6.13" queueing_length_experimental="6.13"/>
            <lane id="50846782#2.53_0" queueing_time="0.00" queueing_length="0.00" queueing_length_experimental="5.74"/>
            <lane id="5965712_1" queueing_time="33.00" queueing_length="6.01" queueing_length_experimental="6.01"/>
            <lane id="5968215#0.389_0" queueing_time="3.00" queueing_length="5.10" queueing_length_experimental="5.10"/>
            <lane id="gneE17.147_2" queueing_time="30.00" queueing_length="15.03" queueing_length_experimental="24.97"/>
            <lane id="gneE17.147_3" queueing_time="18.00" queueing_length="15.01" queueing_length_experimental="15.01"/>
        </lanes>
    </data>
    <data timestep="47.00">
        <lanes>
            <lane id="143009954_0" queueing_time="35.00" queueing_length="24.01" queueing_length_experimental="36.48"/>
            <lane id="143009954_1" queueing_time="24.00" queueing_length="14.01" queueing_length_experimental="14.01"/>
            <lane id="243728741#0_2" queueing_time="5.00" queueing_length="6.00" queueing_length_experimental="6.00"/>
            <lane id="50846710#1.45_0" queueing_time="2.00" queueing_length="6.08" queueing_length_experimental="6.08"/>
            <lane id="50846713#2_0" queueing_time="0.00" queueing_length="0.00" queueing_length_experimental="7.18"/>
            <lane id="50846782#2.53_0" queueing_time="0.00" queueing_length="0.00" queueing_length_experimental="5.49"/>
            <lane id="5965712_1" queueing_time="34.00" queueing_length="6.01" queueing_length_experimental="6.01"/>
            <lane id="5968215#0.389_0" queueing_time="4.00" queueing_length="5.10" queueing_length_experimental="5.10"/>
            <lane id="gneE17.147_2" queueing_time="31.00" queueing_length="15.02" queueing_length_experimental="24.61"/>
            <lane id="gneE17.147_3" queueing_time="19.00" queueing_length="15.01" queueing_length_experimental="15.01"/>
        </lanes>
    </data>
    <data timestep="48.00">
        <lanes>
            <lane id="143009954_0" queueing_time="36.00" queueing_length="24.00" queueing_length_experimental="35.33"/>
            <lane id="143009954_1" queueing_time="25.00" queueing_length="14.01" queueing_length_experimental="14.01"/>
            <lane id="243728741#0_2" queueing_time="6.00" queueing_length="6.00" queueing_length_experimental="6.00"/>
            <lane id="50846710#1.45_0" queueing_time="3.00" queueing_length="6.05" queueing_length_experimental="6.05"/>
            <lane id="50846713#2_0" queueing_time="0.00" queueing_length="0.00" queueing_length_experimental="6.51"/>
            <lane id="50846782#2.53_0" queueing_time="0.00" queueing_length="0.00" queueing_length_experimental="5.34"/>
            <lane id="5965712_1" queueing_time="35.00" queueing_length="6.01" queueing_length_experimental="6.01"/>